                         Program Version 5.0.2 -  RELEASE  -
|  1> !PBEh-3c  DefGrid2 TightSCF freq
|  2> %maxcore 2625.0
|  3> %pal nprocs = 12  end
|  4> %scf
|  5> MAXITER 0
|  6> end
|  7> %output XYZFILE 1 end
|  8> * xyz 0 1
|  9> N   0.55071300000000     -2.50527500000000     -0.74928100000000
| 10> C   -0.16487100000000     -1.72635800000000     -0.01264100000000
| 11> Pb  -1.59655100000000     -2.56764700000000      1.16829800000000
| 12> N   -2.68221100000000     -0.39126300000000      1.40259900000000
| 13> C   -2.36700700000000     -0.14104600000000      0.00632600000000
| 14> C   -1.03863700000000      0.52810000000000     -0.08507800000000
| 15> C   -0.83214200000000      1.87310500000000     -0.15488900000000
| 16> C   0.44366100000000      2.41909600000000     -0.18550300000000
| 17> C   1.52019800000000      1.58160700000000     -0.14370700000000
| 18> C   1.34559500000000      0.19475900000000     -0.07198600000000
| 19> C   2.52221400000000     -0.70920300000000      0.00954300000000
| 20> C   0.07206900000000     -0.31656600000000     -0.04523400000000
| 21> H   1.27722800000000     -2.20019300000000     -1.36909700000000
| 22> H   -3.48677600000000     -1.02077500000000      1.47809700000000
| 23> H   -3.11676700000000      0.61433900000000     -0.31032200000000
| 24> H   -2.49391700000000     -0.99416500000000     -0.65861700000000
| 25> H   -1.65667700000000      2.54679800000000     -0.18792500000000
| 26> H   0.56074500000000      3.49336300000000     -0.24167400000000
| 27> H   2.53980300000000      1.94934400000000     -0.16396300000000
| 28> H   3.05615500000000     -0.82467900000000     -0.94837500000000
| 29> H   2.30446900000000     -1.64111800000000      0.55858700000000
| 30> H   3.24270700000000     -0.16222400000000      0.70484200000000
| 31> *
| 32>
| 33>                          ****END OF INPUT****

CARTESIAN COORDINATES (ANGSTROEM)
---------------------------------
  N      0.550713   -2.505275   -0.749281
  C     -0.164871   -1.726358   -0.012641
  Pb    -1.596551   -2.567647    1.168298
  N     -2.682211   -0.391263    1.402599
  C     -2.367007   -0.141046    0.006326
  C     -1.038637    0.528100   -0.085078
  C     -0.832142    1.873105   -0.154889
  C      0.443661    2.419096   -0.185503
  C      1.520198    1.581607   -0.143707
  C      1.345595    0.194759   -0.071986
  C      2.522214   -0.709203    0.009543
  C      0.072069   -0.316566   -0.045234
  H      1.277228   -2.200193   -1.369097
  H     -3.486776   -1.020775    1.478097
  H     -3.116767    0.614339   -0.310322
  H     -2.493917   -0.994165   -0.658617
  H     -1.656677    2.546798   -0.187925
  H      0.560745    3.493363   -0.241674
  H      2.539803    1.949344   -0.163963
  H      3.056155   -0.824679   -0.948375
  H      2.304469   -1.641118    0.558587
  H      3.242707   -0.162224    0.704842

 Total Charge           Charge          ....    0
 Multiplicity           Mult            ....    1
 Number of Electrons    NEL             ....  100
 Basis Dimension        Dim             ....  211

ORBITAL ENERGIES
----------------

  NO   OCC          E(Eh)            E(eV)
   0   2.0000     -41.003122     -1115.7517
   1   2.0000     -40.981434     -1115.1615
   2   2.0000     -39.452293     -1073.5515
   3   2.0000     -38.919980     -1059.0665
   4   2.0000     -38.429756     -1045.7268
   5   2.0000     -37.384285     -1017.2781
   6   2.0000     -36.642942      -997.1052
   7   2.0000     -35.548442      -967.3223
   8   2.0000     -34.962738      -951.3845
   9   2.0000     -34.327163      -934.0896
  10   2.0000     -34.008556      -925.4199
  11   2.0000     -33.726399      -917.7420
  12   2.0000     -31.180290      -848.4588
  13   2.0000     -31.075776      -845.6148
  14   2.0000     -31.032960      -844.4498
  15   2.0000     -27.119296      -737.9536
  16   2.0000     -27.090009      -737.1566
  17   2.0000     -26.998494      -734.6664
  18   2.0000     -26.991556      -734.4776
  19   2.0000     -26.976861      -734.0777
  20   2.0000     -26.234958      -713.8895
  21   2.0000     -25.975266      -706.8229
  22   2.0000     -25.679958      -698.7872
  23   2.0000     -25.533465      -694.8009
  24   2.0000     -25.242199      -686.8751
  25   2.0000     -25.221569      -686.3138
  26   2.0000     -25.146720      -684.2771
  27   2.0000     -24.950762      -678.9447
  28   2.0000     -24.883525      -677.1151
  29   2.0000     -24.715272      -672.5368
  30   2.0000     -24.437636      -664.9819
  31   2.0000     -24.414547      -664.3536
  32   2.0000     -24.363082      -662.9532
  33   2.0000     -24.247691      -659.8132
  34   2.0000     -24.101354      -655.8312
  35   2.0000     -23.849446      -648.9764
  36   2.0000     -23.693165      -644.7238
  37   2.0000     -23.682041      -644.4211
  38   2.0000     -23.415229      -637.1608
  39   2.0000     -23.331619      -634.8856
  40   2.0000     -23.241032      -632.4206
  41   2.0000     -23.124794      -629.2576
  42   2.0000     -23.092105      -628.3681
  43   2.0000     -23.077028      -627.9579
  44   2.0000     -22.997822      -625.8026
  45   2.0000     -22.962288      -624.8356
  46   2.0000     -22.828958      -621.2075
  47   2.0000     -22.690494      -617.4397
  48   2.0000     -22.622305      -615.5842
  49   2.0000     -22.591453      -614.7447
  50   0.0000     -22.535681      -613.2271
  51   0.0000     -22.478539      -611.6721
  52   0.0000     -22.439301      -610.6044
  53   0.0000     -22.413262      -609.8959
  54   0.0000     -22.331348      -607.6669

MULLIKEN ATOMIC CHARGES
-----------------------
   0 N :    2.745520
   1 C :   -7.260052
   2 Pb:    0.845066
   3 N :    3.075804
   4 C :   -2.360950
   5 C :   -3.862712
   6 C :    1.784441
   7 C :    3.663939
   8 C :    2.626843
   9 C :   -3.272293
  10 C :    3.807886
  11 C :  -11.906717
  12 H :    0.996788
  13 H :    0.999827
  14 H :    1.015662
  15 H :    1.040898
  16 H :    1.035993
  17 H :    1.015090
  18 H :    1.020599
  19 H :    0.996070
  20 H :    0.994436
  21 H :    0.997860
Sum of atomic charges:    0.0000000

LOEWDIN ATOMIC CHARGES
----------------------
   0 N :    2.419856
   1 C :   -7.516887
   2 Pb:    1.744078
   3 N :    2.842002
   4 C :   -1.845238
   5 C :   -5.066084
   6 C :    2.139154
   7 C :    3.561401
   8 C :    2.825919
   9 C :   -3.758995
  10 C :    3.852069
  11 C :  -11.109244
  12 H :    0.986175
  13 H :    0.987451
  14 H :    0.990454
  15 H :    0.964039
  16 H :    0.995664
  17 H :    0.997772
  18 H :    0.996379
  19 H :    0.998546
  20 H :    0.997136
  21 H :    0.998354

  Mayer bond orders larger than 0.100000
B(  0-N ,  1-C ) :   0.2093 B(  0-N ,  2-Pb) :   0.1924 B(  0-N , 11-C ) :   0.1308
B(  1-C ,  2-Pb) :  -2.0724 B(  1-C ,  4-C ) :   0.2198 B(  1-C ,  5-C ) :  -0.1784
B(  1-C ,  6-C ) :   0.1126 B(  1-C ,  8-C ) :   0.2017 B(  1-C ,  9-C ) :   0.6821
B(  1-C , 11-C ) :   2.2095 B(  3-N ,  4-C ) :  -0.1033 B(  4-C ,  5-C ) :  -0.3807
B(  4-C ,  6-C ) :   0.1168 B(  4-C , 11-C ) :   0.4575 B(  5-C ,  9-C ) :   0.4069
B(  5-C , 11-C ) :   1.6526 B(  6-C ,  8-C ) :   0.1231 B(  6-C ,  9-C ) :  -0.1007
B(  6-C , 11-C ) :   0.2701 B(  7-C ,  8-C ) :   0.2540 B(  8-C ,  9-C ) :   0.1648
B(  8-C , 11-C ) :   0.2370 B(  9-C , 10-C ) :   0.3144 B(  9-C , 11-C ) :   1.6894

Dispersion correction           -0.016045136
FINAL SINGLE POINT ENERGY         0.019806224667

DIPOLE MOMENT
-------------
                                X             Y             Z
Electronic contribution:    -87.10050    -147.35432      86.09980
Nuclear contribution   :    108.67535     181.70484     -82.02109
                        -----------------------------------------
Total Dipole Moment    :     21.57486      34.35052       4.07872
                        -----------------------------------------
Magnitude (a.u.)       :     40.76847
Magnitude (Debye)      :    103.62522

Dispersion correction in the Hessian             ... done   (      0.5 sec)

VIBRATIONAL FREQUENCIES
-----------------------

Scaling factor for frequencies =  1.000000000  (already applied!)

   0:         0.00 cm**-1
   1:         0.00 cm**-1
   2:         0.00 cm**-1
   3:         0.00 cm**-1
   4:         0.00 cm**-1
   5:         0.00 cm**-1
   6:   -628597.67 cm**-1 ***imaginary mode***
   7:   -590220.91 cm**-1 ***imaginary mode***
   8:   -389849.06 cm**-1 ***imaginary mode***
   9:   -366900.16 cm**-1 ***imaginary mode***
  10:   -349293.56 cm**-1 ***imaginary mode***
  11:   -317293.27 cm**-1 ***imaginary mode***
  12:   -290094.22 cm**-1 ***imaginary mode***
  13:   -251124.16 cm**-1 ***imaginary mode***
  14:   -224077.45 cm**-1 ***imaginary mode***
  15:   -193526.39 cm**-1 ***imaginary mode***
  16:   -190216.06 cm**-1 ***imaginary mode***
  17:   -175244.04 cm**-1 ***imaginary mode***
  18:   -154643.49 cm**-1 ***imaginary mode***
  19:   -151415.73 cm**-1 ***imaginary mode***
  20:   -135571.19 cm**-1 ***imaginary mode***
  21:   -132301.83 cm**-1 ***imaginary mode***
  22:   -123167.46 cm**-1 ***imaginary mode***
  23:   -119139.87 cm**-1 ***imaginary mode***
  24:   -106622.96 cm**-1 ***imaginary mode***
  25:   -101420.60 cm**-1 ***imaginary mode***
  26:    -93526.98 cm**-1 ***imaginary mode***
  27:    -84846.17 cm**-1 ***imaginary mode***
  28:    -79952.47 cm**-1 ***imaginary mode***
  29:    -74016.84 cm**-1 ***imaginary mode***
  30:    -72164.74 cm**-1 ***imaginary mode***
  31:    -68516.40 cm**-1 ***imaginary mode***
  32:    -66678.20 cm**-1 ***imaginary mode***
  33:    -62736.63 cm**-1 ***imaginary mode***
  34:    -61716.21 cm**-1 ***imaginary mode***
  35:    -58973.04 cm**-1 ***imaginary mode***
  36:    -58075.18 cm**-1 ***imaginary mode***
  37:    -51926.35 cm**-1 ***imaginary mode***
  38:    -49503.04 cm**-1 ***imaginary mode***
  39:    -48177.25 cm**-1 ***imaginary mode***
  40:    -43879.76 cm**-1 ***imaginary mode***
  41:    -42581.24 cm**-1 ***imaginary mode***
  42:    -39011.27 cm**-1 ***imaginary mode***
  43:    -36879.06 cm**-1 ***imaginary mode***
  44:    -35333.70 cm**-1 ***imaginary mode***
  45:    -31594.97 cm**-1 ***imaginary mode***
  46:    -30299.54 cm**-1 ***imaginary mode***
  47:    -29360.70 cm**-1 ***imaginary mode***
  48:    -28558.81 cm**-1 ***imaginary mode***
  49:    -26046.41 cm**-1 ***imaginary mode***
  50:    -25223.65 cm**-1 ***imaginary mode***
  51:    -24339.07 cm**-1 ***imaginary mode***
  52:    -21694.81 cm**-1 ***imaginary mode***
  53:    -20821.60 cm**-1 ***imaginary mode***
  54:    -19268.58 cm**-1 ***imaginary mode***
  55:    -17283.45 cm**-1 ***imaginary mode***
  56:    -14045.96 cm**-1 ***imaginary mode***
  57:    -12190.73 cm**-1 ***imaginary mode***
  58:    -10906.98 cm**-1 ***imaginary mode***
  59:    -10533.01 cm**-1 ***imaginary mode***
  60:     -9797.71 cm**-1 ***imaginary mode***
  61:     -8075.14 cm**-1 ***imaginary mode***
  62:     -7029.78 cm**-1 ***imaginary mode***
  63:     -6182.31 cm**-1 ***imaginary mode***
  64:     -5849.64 cm**-1 ***imaginary mode***
  65:     -5292.72 cm**-1 ***imaginary mode***

IR SPECTRUM
-----------

 Mode   freq       eps      Int      T**2         TX        TY        TZ
       cm**-1   L/(mol*cm) km/mol    a.u.
----------------------------------------------------------------------------

--------------------------
THERMOCHEMISTRY AT 298.15K
--------------------------

Temperature         ... 298.15 K
Pressure            ... 1.00 atm
Total Mass          ... 353.39 AMU

Throughout the following assumptions are being made:
  (1) The electronic state is orbitally nondegenerate
  (2) There are no thermally accessible electronically excited states
  (3) Hindered rotations indicated by low frequency modes are not
      treated as such but are treated as vibrations and this may
      cause some error
  (4) All equations used are the standard statistical mechanics
      equations for an ideal gas
  (5) All vibrations are strictly harmonic

------------
INNER ENERGY
------------

The inner energy is: U= E(el) + E(ZPE) + E(vib) + E(rot) + E(trans)
    E(el)   - is the total energy from the electronic structure calculation
              = E(kin-el) + E(nuc-el) + E(el-el) + E(nuc-nuc)
    E(ZPE)  - the the zero temperature vibrational energy from the frequency calculation
    E(vib)  - the the finite temperature correction to E(ZPE) due to population
              of excited vibrational states
    E(rot)  - is the rotational thermal energy
    E(trans)- is the translational thermal energy

Summary of contributions to the inner energy U:
Electronic energy                ...      0.01980622 Eh
Zero point energy                ...      0.00000000 Eh       0.00 kcal/mol
Thermal vibrational correction   ...      0.00000000 Eh       0.00 kcal/mol
Thermal rotational correction    ...      0.00141627 Eh       0.89 kcal/mol
Thermal translational correction ...      0.00141627 Eh       0.89 kcal/mol
-----------------------------------------------------------------------
Total thermal energy                      0.02263877 Eh

Summary of corrections to the electronic energy:
(perhaps to be used in another calculation)
Total thermal correction                  0.00283254 Eh       1.78 kcal/mol
Non-thermal (ZPE) correction              0.00000000 Eh       0.00 kcal/mol
-----------------------------------------------------------------------
Total correction                          0.00283254 Eh       1.78 kcal/mol

--------
ENTHALPY
--------

The enthalpy is H = U + kB*T
                kB is Boltzmann's constant
Total free energy                 ...      0.02263877 Eh
Thermal Enthalpy correction       ...      0.00094421 Eh       0.59 kcal/mol
-----------------------------------------------------------------------
Total Enthalpy                    ...      0.02358298 Eh

Note: Only C1 symmetry has been detected, increase convergence thresholds
      if your molecule has a higher symmetry. Symmetry factor of 1.0 is
      used for the rotational entropy correction.

Note: Rotational entropy computed according to Herzberg
Infrared and Raman Spectra, Chapter V,1, Van Nostrand Reinhold, 1945
Point Group:  C1, Symmetry Number:   1
Rotational constants in cm-1:     0.039779     0.013280     0.010585

Vibrational entropy computed according to the QRRHO of S. Grimme
Chem.Eur.J. 2012 18 9955

-------
ENTROPY
-------

The entropy contributions are T*S = T*(S(el)+S(vib)+S(rot)+S(trans))
     S(el)   - electronic entropy
     S(vib)  - vibrational entropy
     S(rot)  - rotational entropy
     S(trans)- translational entropy
The entropies will be listed as multiplied by the temperature to get
units of energy

Electronic entropy                ...      0.00000000 Eh      0.00 kcal/mol
Vibrational entropy               ...      0.00000000 Eh      0.00 kcal/mol
Rotational entropy                ...      0.01522038 Eh      9.55 kcal/mol
Translational entropy             ...      0.02065916 Eh     12.96 kcal/mol
-----------------------------------------------------------------------
Final entropy term                ...      0.03587954 Eh     22.51 kcal/mol

In case the symmetry of your molecule has not been determined correctly
or in case you have a reason to use a different symmetry number we print
out the resulting rotational entropy values for sn=1,12 :
 --------------------------------------------------------
|  sn= 1 | S(rot)=       0.01522038 Eh      9.55 kcal/mol|
|  sn= 2 | S(rot)=       0.01456593 Eh      9.14 kcal/mol|
|  sn= 3 | S(rot)=       0.01418309 Eh      8.90 kcal/mol|
|  sn= 4 | S(rot)=       0.01391147 Eh      8.73 kcal/mol|
|  sn= 5 | S(rot)=       0.01370078 Eh      8.60 kcal/mol|
|  sn= 6 | S(rot)=       0.01352864 Eh      8.49 kcal/mol|
|  sn= 7 | S(rot)=       0.01338309 Eh      8.40 kcal/mol|
|  sn= 8 | S(rot)=       0.01325701 Eh      8.32 kcal/mol|
|  sn= 9 | S(rot)=       0.01314581 Eh      8.25 kcal/mol|
|  sn=10 | S(rot)=       0.01304633 Eh      8.19 kcal/mol|
|  sn=11 | S(rot)=       0.01295634 Eh      8.13 kcal/mol|
|  sn=12 | S(rot)=       0.01287418 Eh      8.08 kcal/mol|
 --------------------------------------------------------

-------------------
GIBBS FREE ENERGY
-------------------

The Gibbs free energy is G = H - T*S

Total enthalpy                    ...      0.02358298 Eh
Total entropy correction          ...     -0.03587954 Eh    -22.51 kcal/mol
-----------------------------------------------------------------------
Final Gibbs free energy         ...     -0.01229657 Eh

For completeness - the Gibbs free energy minus the electronic energy
G-E(el)                           ...     -0.03210279 Eh    -20.14 kcal/mol

                             ****ORCA TERMINATED NORMALLY****
TOTAL RUN TIME: 0 days 0 hours 2 minutes 44 seconds 274 msec
